integrator               = md
dt                       = 0.0005
nsteps                   = 0
continuation             = yes
gen-vel                  = no

cutoff-scheme            = Verlet
nstlist                  = 20
rlist                    = 1.20

coulombtype              = PME
rcoulomb                 = 1.20
fourierspacing           = 0.12
pme-order                = 4
ewald-rtol               = 1e-5

vdwtype                  = Cut-off
rvdw                     = 1.20
vdw-modifier             = Potential-shift
DispCorr                 = EnerPres

constraints              = h-bonds
constraint-algorithm     = lincs
lincs-iter               = 1
lincs-order              = 4

pbc                      = xyz

nstlog                   = 1
nstenergy                = 1
nstxout                  = 0
nstvout                  = 0
nstfout                  = 0
nstxout-compressed       = 0

energygrps               = HBN_PYR CAPS SOL
