; Day021 mobile-release protocol
; Derived from runs/phase1A/accepted/hybrid_hydrated_gap45_pyr5shift_clean032_nvt_100ps_frozenSolute/nvt_100ps_frozenSolute.mdp
; Accepted source files were not modified

integrator = md
dt = 0.0005
nsteps = 288000
nstxout-compressed = 1000
nstenergy = 200
nstlog = 1000
cutoff-scheme                = Verlet
nstlist                      = 20
rlist                        = 1.2
coulombtype                  = PME
rcoulomb                     = 1.2
vdwtype                      = Cut-off
rvdw                         = 1.2
pbc                          = xyz
constraints                  = none
tcoupl                       = V-rescale
tc-grps                      = System
tau-t                        = 1.0
ref-t                        = 300
pcoupl                       = no
comm-mode                    = None
gen-vel = yes
continuation = no
nstxout = 0
nstvout = 0
nstfout = 0
nstcalcenergy = 100
gen-temp                     = 300
gen-seed = 20260706
freezegrps = HBN_PYR
freezedim = Y Y Y

; Day022 matched frozen control
; Same initial coordinates and velocity-generation seed as Stage02
; HBN and PYR frozen in all Cartesian dimensions
; 288000 steps x 0.0005 ps = 144 ps
; compressed coordinates every 0.5 ps
; expected frames including t=0 and t=144 ps: 289
