integrator               = steep
emtol                    = 500.0
emstep                   = 0.001000
nsteps                   = 5000

cutoff-scheme            = Verlet
nstlist                  = 20
rlist                    = 1.20

coulombtype              = PME
rcoulomb                 = 1.20
fourierspacing           = 0.12
pme-order                = 4
ewald-rtol               = 1e-5

vdwtype                  = Cut-off
rvdw                     = 1.20
vdw-modifier             = Potential-shift
DispCorr                 = EnerPres

constraints              = h-bonds
constraint-algorithm     = lincs
lincs-iter               = 1
lincs-order              = 4

pbc                      = xyz

freezegrps               = HBN_PYR CAPS
freezedim                = Y Y Y Y Y Y

nstlog                   = 1
nstenergy                = 1
nstxout                  = 0
nstvout                  = 0
nstfout                  = 0
nstxout-compressed       = 0

energygrps               = HBN_PYR CAPS SOL
